# vtk DataFile Version 3.0
#This file was generated by the deal.II library on 2017/4/17 at 0:15:13
ASCII
DATASET UNSTRUCTURED_GRID

POINTS 8000 double
0 0 0
0.1 0 0
0 0.1 0
0.1 0.1 0
0 0 0.1
0.1 0 0.1
0 0.1 0.1
0.1 0.1 0.1
0.1 0 0
0.2 0 0
0.1 0.1 0
0.2 0.1 0
0.1 0 0.1
0.2 0 0.1
0.1 0.1 0.1
0.2 0.1 0.1
0.2 0 0
0.3 0 0
0.2 0.1 0
0.3 0.1 0
0.2 0 0.1
0.3 0 0.1
0.2 0.1 0.1
0.3 0.1 0.1
0.3 0 0
0.4 0 0
0.3 0.1 0
0.4 0.1 0
0.3 0 0.1
0.4 0 0.1
0.3 0.1 0.1
0.4 0.1 0.1
0.4 0 0
0.5 0 0
0.4 0.1 0
0.5 0.1 0
0.4 0 0.1
0.5 0 0.1
0.4 0.1 0.1
0.5 0.1 0.1
0.5 0 0
0.6 0 0
0.5 0.1 0
0.6 0.1 0
0.5 0 0.1
0.6 0 0.1
0.5 0.1 0.1
0.6 0.1 0.1
0.6 0 0
0.7 0 0
0.6 0.1 0
0.7 0.1 0
0.6 0 0.1
0.7 0 0.1
0.6 0.1 0.1
0.7 0.1 0.1
0.7 0 0
0.8 0 0
0.7 0.1 0
0.8 0.1 0
0.7 0 0.1
0.8 0 0.1
0.7 0.1 0.1
0.8 0.1 0.1
0.8 0 0
0.9 0 0
0.8 0.1 0
0.9 0.1 0
0.8 0 0.1
0.9 0 0.1
0.8 0.1 0.1
0.9 0.1 0.1
0.9 0 0
1 0 0
0.9 0.1 0
1 0.1 0
0.9 0 0.1
1 0 0.1
0.9 0.1 0.1
1 0.1 0.1
0 0.1 0
0.1 0.1 0
0 0.2 0
0.1 0.2 0
0 0.1 0.1
0.1 0.1 0.1
0 0.2 0.1
0.1 0.2 0.1
0.1 0.1 0
0.2 0.1 0
0.1 0.2 0
0.2 0.2 0
0.1 0.1 0.1
0.2 0.1 0.1
0.1 0.2 0.1
0.2 0.2 0.1
0.2 0.1 0
0.3 0.1 0
0.2 0.2 0
0.3 0.2 0
0.2 0.1 0.1
0.3 0.1 0.1
0.2 0.2 0.1
0.3 0.2 0.1
0.3 0.1 0
0.4 0.1 0
0.3 0.2 0
0.4 0.2 0
0.3 0.1 0.1
0.4 0.1 0.1
0.3 0.2 0.1
0.4 0.2 0.1
0.4 0.1 0
0.5 0.1 0
0.4 0.2 0
0.5 0.2 0
0.4 0.1 0.1
0.5 0.1 0.1
0.4 0.2 0.1
0.5 0.2 0.1
0.5 0.1 0
0.6 0.1 0
0.5 0.2 0
0.6 0.2 0
0.5 0.1 0.1
0.6 0.1 0.1
0.5 0.2 0.1
0.6 0.2 0.1
0.6 0.1 0
0.7 0.1 0
0.6 0.2 0
0.7 0.2 0
0.6 0.1 0.1
0.7 0.1 0.1
0.6 0.2 0.1
0.7 0.2 0.1
0.7 0.1 0
0.8 0.1 0
0.7 0.2 0
0.8 0.2 0
0.7 0.1 0.1
0.8 0.1 0.1
0.7 0.2 0.1
0.8 0.2 0.1
0.8 0.1 0
0.9 0.1 0
0.8 0.2 0
0.9 0.2 0
0.8 0.1 0.1
0.9 0.1 0.1
0.8 0.2 0.1
0.9 0.2 0.1
0.9 0.1 0
1 0.1 0
0.9 0.2 0
1 0.2 0
0.9 0.1 0.1
1 0.1 0.1
0.9 0.2 0.1
1 0.2 0.1
0 0.2 0
0.1 0.2 0
0 0.3 0
0.1 0.3 0
0 0.2 0.1
0.1 0.2 0.1
0 0.3 0.1
0.1 0.3 0.1
0.1 0.2 0
0.2 0.2 0
0.1 0.3 0
0.2 0.3 0
0.1 0.2 0.1
0.2 0.2 0.1
0.1 0.3 0.1
0.2 0.3 0.1
0.2 0.2 0
0.3 0.2 0
0.2 0.3 0
0.3 0.3 0
0.2 0.2 0.1
0.3 0.2 0.1
0.2 0.3 0.1
0.3 0.3 0.1
0.3 0.2 0
0.4 0.2 0
0.3 0.3 0
0.4 0.3 0
0.3 0.2 0.1
0.4 0.2 0.1
0.3 0.3 0.1
0.4 0.3 0.1
0.4 0.2 0
0.5 0.2 0
0.4 0.3 0
0.5 0.3 0
0.4 0.2 0.1
0.5 0.2 0.1
0.4 0.3 0.1
0.5 0.3 0.1
0.5 0.2 0
0.6 0.2 0
0.5 0.3 0
0.6 0.3 0
0.5 0.2 0.1
0.6 0.2 0.1
0.5 0.3 0.1
0.6 0.3 0.1
0.6 0.2 0
0.7 0.2 0
0.6 0.3 0
0.7 0.3 0
0.6 0.2 0.1
0.7 0.2 0.1
0.6 0.3 0.1
0.7 0.3 0.1
0.7 0.2 0
0.8 0.2 0
0.7 0.3 0
0.8 0.3 0
0.7 0.2 0.1
0.8 0.2 0.1
0.7 0.3 0.1
0.8 0.3 0.1
0.8 0.2 0
0.9 0.2 0
0.8 0.3 0
0.9 0.3 0
0.8 0.2 0.1
0.9 0.2 0.1
0.8 0.3 0.1
0.9 0.3 0.1
0.9 0.2 0
1 0.2 0
0.9 0.3 0
1 0.3 0
0.9 0.2 0.1
1 0.2 0.1
0.9 0.3 0.1
1 0.3 0.1
0 0.3 0
0.1 0.3 0
0 0.4 0
0.1 0.4 0
0 0.3 0.1
0.1 0.3 0.1
0 0.4 0.1
0.1 0.4 0.1
0.1 0.3 0
0.2 0.3 0
0.1 0.4 0
0.2 0.4 0
0.1 0.3 0.1
0.2 0.3 0.1
0.1 0.4 0.1
0.2 0.4 0.1
0.2 0.3 0
0.3 0.3 0
0.2 0.4 0
0.3 0.4 0
0.2 0.3 0.1
0.3 0.3 0.1
0.2 0.4 0.1
0.3 0.4 0.1
0.3 0.3 0
0.4 0.3 0
0.3 0.4 0
0.4 0.4 0
0.3 0.3 0.1
0.4 0.3 0.1
0.3 0.4 0.1
0.4 0.4 0.1
0.4 0.3 0
0.5 0.3 0
0.4 0.4 0
0.5 0.4 0
0.4 0.3 0.1
0.5 0.3 0.1
0.4 0.4 0.1
0.5 0.4 0.1
0.5 0.3 0
0.6 0.3 0
0.5 0.4 0
0.6 0.4 0
0.5 0.3 0.1
0.6 0.3 0.1
0.5 0.4 0.1
0.6 0.4 0.1
0.6 0.3 0
0.7 0.3 0
0.6 0.4 0
0.7 0.4 0
0.6 0.3 0.1
0.7 0.3 0.1
0.6 0.4 0.1
0.7 0.4 0.1
0.7 0.3 0
0.8 0.3 0
0.7 0.4 0
0.8 0.4 0
0.7 0.3 0.1
0.8 0.3 0.1
0.7 0.4 0.1
0.8 0.4 0.1
0.8 0.3 0
0.9 0.3 0
0.8 0.4 0
0.9 0.4 0
0.8 0.3 0.1
0.9 0.3 0.1
0.8 0.4 0.1
0.9 0.4 0.1
0.9 0.3 0
1 0.3 0
0.9 0.4 0
1 0.4 0
0.9 0.3 0.1
1 0.3 0.1
0.9 0.4 0.1
1 0.4 0.1
0 0.4 0
0.1 0.4 0
0 0.5 0
0.1 0.5 0
0 0.4 0.1
0.1 0.4 0.1
0 0.5 0.1
0.1 0.5 0.1
0.1 0.4 0
0.2 0.4 0
0.1 0.5 0
0.2 0.5 0
0.1 0.4 0.1
0.2 0.4 0.1
0.1 0.5 0.1
0.2 0.5 0.1
0.2 0.4 0
0.3 0.4 0
0.2 0.5 0
0.3 0.5 0
0.2 0.4 0.1
0.3 0.4 0.1
0.2 0.5 0.1
0.3 0.5 0.1
0.3 0.4 0
0.4 0.4 0
0.3 0.5 0
0.4 0.5 0
0.3 0.4 0.1
0.4 0.4 0.1
0.3 0.5 0.1
0.4 0.5 0.1
0.4 0.4 0
0.5 0.4 0
0.4 0.5 0
0.5 0.5 0
0.4 0.4 0.1
0.5 0.4 0.1
0.4 0.5 0.1
0.5 0.5 0.1
0.5 0.4 0
0.6 0.4 0
0.5 0.5 0
0.6 0.5 0
0.5 0.4 0.1
0.6 0.4 0.1
0.5 0.5 0.1
0.6 0.5 0.1
0.6 0.4 0
0.7 0.4 0
0.6 0.5 0
0.7 0.5 0
0.6 0.4 0.1
0.7 0.4 0.1
0.6 0.5 0.1
0.7 0.5 0.1
0.7 0.4 0
0.8 0.4 0
0.7 0.5 0
0.8 0.5 0
0.7 0.4 0.1
0.8 0.4 0.1
0.7 0.5 0.1
0.8 0.5 0.1
0.8 0.4 0
0.9 0.4 0
0.8 0.5 0
0.9 0.5 0
0.8 0.4 0.1
0.9 0.4 0.1
0.8 0.5 0.1
0.9 0.5 0.1
0.9 0.4 0
1 0.4 0
0.9 0.5 0
1 0.5 0
0.9 0.4 0.1
1 0.4 0.1
0.9 0.5 0.1
1 0.5 0.1
0 0.5 0
0.1 0.5 0
0 0.6 0
0.1 0.6 0
0 0.5 0.1
0.1 0.5 0.1
0 0.6 0.1
0.1 0.6 0.1
0.1 0.5 0
0.2 0.5 0
0.1 0.6 0
0.2 0.6 0
0.1 0.5 0.1
0.2 0.5 0.1
0.1 0.6 0.1
0.2 0.6 0.1
0.2 0.5 0
0.3 0.5 0
0.2 0.6 0
0.3 0.6 0
0.2 0.5 0.1
0.3 0.5 0.1
0.2 0.6 0.1
0.3 0.6 0.1
0.3 0.5 0
0.4 0.5 0
0.3 0.6 0
0.4 0.6 0
0.3 0.5 0.1
0.4 0.5 0.1
0.3 0.6 0.1
0.4 0.6 0.1
0.4 0.5 0
0.5 0.5 0
0.4 0.6 0
0.5 0.6 0
0.4 0.5 0.1
0.5 0.5 0.1
0.4 0.6 0.1
0.5 0.6 0.1
0.5 0.5 0
0.6 0.5 0
0.5 0.6 0
0.6 0.6 0
0.5 0.5 0.1
0.6 0.5 0.1
0.5 0.6 0.1
0.6 0.6 0.1
0.6 0.5 0
0.7 0.5 0
0.6 0.6 0
0.7 0.6 0
0.6 0.5 0.1
0.7 0.5 0.1
0.6 0.6 0.1
0.7 0.6 0.1
0.7 0.5 0
0.8 0.5 0
0.7 0.6 0
0.8 0.6 0
0.7 0.5 0.1
0.8 0.5 0.1
0.7 0.6 0.1
0.8 0.6 0.1
0.8 0.5 0
0.9 0.5 0
0.8 0.6 0
0.9 0.6 0
0.8 0.5 0.1
0.9 0.5 0.1
0.8 0.6 0.1
0.9 0.6 0.1
0.9 0.5 0
1 0.5 0
0.9 0.6 0
1 0.6 0
0.9 0.5 0.1
1 0.5 0.1
0.9 0.6 0.1
1 0.6 0.1
0 0.6 0
0.1 0.6 0
0 0.7 0
0.1 0.7 0
0 0.6 0.1
0.1 0.6 0.1
0 0.7 0.1
0.1 0.7 0.1
0.1 0.6 0
0.2 0.6 0
0.1 0.7 0
0.2 0.7 0
0.1 0.6 0.1
0.2 0.6 0.1
0.1 0.7 0.1
0.2 0.7 0.1
0.2 0.6 0
0.3 0.6 0
0.2 0.7 0
0.3 0.7 0
0.2 0.6 0.1
0.3 0.6 0.1
0.2 0.7 0.1
0.3 0.7 0.1
0.3 0.6 0
0.4 0.6 0
0.3 0.7 0
0.4 0.7 0
0.3 0.6 0.1
0.4 0.6 0.1
0.3 0.7 0.1
0.4 0.7 0.1
0.4 0.6 0
0.5 0.6 0
0.4 0.7 0
0.5 0.7 0
0.4 0.6 0.1
0.5 0.6 0.1
0.4 0.7 0.1
0.5 0.7 0.1
0.5 0.6 0
0.6 0.6 0
0.5 0.7 0
0.6 0.7 0
0.5 0.6 0.1
0.6 0.6 0.1
0.5 0.7 0.1
0.6 0.7 0.1
0.6 0.6 0
0.7 0.6 0
0.6 0.7 0
0.7 0.7 0
0.6 0.6 0.1
0.7 0.6 0.1
0.6 0.7 0.1
0.7 0.7 0.1
0.7 0.6 0
0.8 0.6 0
0.7 0.7 0
0.8 0.7 0
0.7 0.6 0.1
0.8 0.6 0.1
0.7 0.7 0.1
0.8 0.7 0.1
0.8 0.6 0
0.9 0.6 0
0.8 0.7 0
0.9 0.7 0
0.8 0.6 0.1
0.9 0.6 0.1
0.8 0.7 0.1
0.9 0.7 0.1
0.9 0.6 0
1 0.6 0
0.9 0.7 0
1 0.7 0
0.9 0.6 0.1
1 0.6 0.1
0.9 0.7 0.1
1 0.7 0.1
0 0.7 0
0.1 0.7 0
0 0.8 0
0.1 0.8 0
0 0.7 0.1
0.1 0.7 0.1
0 0.8 0.1
0.1 0.8 0.1
0.1 0.7 0
0.2 0.7 0
0.1 0.8 0
0.2 0.8 0
0.1 0.7 0.1
0.2 0.7 0.1
0.1 0.8 0.1
0.2 0.8 0.1
0.2 0.7 0
0.3 0.7 0
0.2 0.8 0
0.3 0.8 0
0.2 0.7 0.1
0.3 0.7 0.1
0.2 0.8 0.1
0.3 0.8 0.1
0.3 0.7 0
0.4 0.7 0
0.3 0.8 0
0.4 0.8 0
0.3 0.7 0.1
0.4 0.7 0.1
0.3 0.8 0.1
0.4 0.8 0.1
0.4 0.7 0
0.5 0.7 0
0.4 0.8 0
0.5 0.8 0
0.4 0.7 0.1
0.5 0.7 0.1
0.4 0.8 0.1
0.5 0.8 0.1
0.5 0.7 0
0.6 0.7 0
0.5 0.8 0
0.6 0.8 0
0.5 0.7 0.1
0.6 0.7 0.1
0.5 0.8 0.1
0.6 0.8 0.1
0.6 0.7 0
0.7 0.7 0
0.6 0.8 0
0.7 0.8 0
0.6 0.7 0.1
0.7 0.7 0.1
0.6 0.8 0.1
0.7 0.8 0.1
0.7 0.7 0
0.8 0.7 0
0.7 0.8 0
0.8 0.8 0
0.7 0.7 0.1
0.8 0.7 0.1
0.7 0.8 0.1
0.8 0.8 0.1
0.8 0.7 0
0.9 0.7 0
0.8 0.8 0
0.9 0.8 0
0.8 0.7 0.1
0.9 0.7 0.1
0.8 0.8 0.1
0.9 0.8 0.1
0.9 0.7 0
1 0.7 0
0.9 0.8 0
1 0.8 0
0.9 0.7 0.1
1 0.7 0.1
0.9 0.8 0.1
1 0.8 0.1
0 0.8 0
0.1 0.8 0
0 0.9 0
0.1 0.9 0
0 0.8 0.1
0.1 0.8 0.1
0 0.9 0.1
0.1 0.9 0.1
0.1 0.8 0
0.2 0.8 0
0.1 0.9 0
0.2 0.9 0
0.1 0.8 0.1
0.2 0.8 0.1
0.1 0.9 0.1
0.2 0.9 0.1
0.2 0.8 0
0.3 0.8 0
0.2 0.9 0
0.3 0.9 0
0.2 0.8 0.1
0.3 0.8 0.1
0.2 0.9 0.1
0.3 0.9 0.1
0.3 0.8 0
0.4 0.8 0
0.3 0.9 0
0.4 0.9 0
0.3 0.8 0.1
0.4 0.8 0.1
0.3 0.9 0.1
0.4 0.9 0.1
0.4 0.8 0
0.5 0.8 0
0.4 0.9 0
0.5 0.9 0
0.4 0.8 0.1
0.5 0.8 0.1
0.4 0.9 0.1
0.5 0.9 0.1
0.5 0.8 0
0.6 0.8 0
0.5 0.9 0
0.6 0.9 0
0.5 0.8 0.1
0.6 0.8 0.1
0.5 0.9 0.1
0.6 0.9 0.1
0.6 0.8 0
0.7 0.8 0
0.6 0.9 0
0.7 0.9 0
0.6 0.8 0.1
0.7 0.8 0.1
0.6 0.9 0.1
0.7 0.9 0.1
0.7 0.8 0
0.8 0.8 0
0.7 0.9 0
0.8 0.9 0
0.7 0.8 0.1
0.8 0.8 0.1
0.7 0.9 0.1
0.8 0.9 0.1
0.8 0.8 0
0.9 0.8 0
0.8 0.9 0
0.9 0.9 0
0.8 0.8 0.1
0.9 0.8 0.1
0.8 0.9 0.1
0.9 0.9 0.1
0.9 0.8 0
1 0.8 0
0.9 0.9 0
1 0.9 0
0.9 0.8 0.1
1 0.8 0.1
0.9 0.9 0.1
1 0.9 0.1
0 0.9 0
0.1 0.9 0
0 1 0
0.1 1 0
0 0.9 0.1
0.1 0.9 0.1
0 1 0.1
0.1 1 0.1
0.1 0.9 0
0.2 0.9 0
0.1 1 0
0.2 1 0
0.1 0.9 0.1
0.2 0.9 0.1
0.1 1 0.1
0.2 1 0.1
0.2 0.9 0
0.3 0.9 0
0.2 1 0
0.3 1 0
0.2 0.9 0.1
0.3 0.9 0.1
0.2 1 0.1
0.3 1 0.1
0.3 0.9 0
0.4 0.9 0
0.3 1 0
0.4 1 0
0.3 0.9 0.1
0.4 0.9 0.1
0.3 1 0.1
0.4 1 0.1
0.4 0.9 0
0.5 0.9 0
0.4 1 0
0.5 1 0
0.4 0.9 0.1
0.5 0.9 0.1
0.4 1 0.1
0.5 1 0.1
0.5 0.9 0
0.6 0.9 0
0.5 1 0
0.6 1 0
0.5 0.9 0.1
0.6 0.9 0.1
0.5 1 0.1
0.6 1 0.1
0.6 0.9 0
0.7 0.9 0
0.6 1 0
0.7 1 0
0.6 0.9 0.1
0.7 0.9 0.1
0.6 1 0.1
0.7 1 0.1
0.7 0.9 0
0.8 0.9 0
0.7 1 0
0.8 1 0
0.7 0.9 0.1
0.8 0.9 0.1
0.7 1 0.1
0.8 1 0.1
0.8 0.9 0
0.9 0.9 0
0.8 1 0
0.9 1 0
0.8 0.9 0.1
0.9 0.9 0.1
0.8 1 0.1
0.9 1 0.1
0.9 0.9 0
1 0.9 0
0.9 1 0
1 1 0
0.9 0.9 0.1
1 0.9 0.1
0.9 1 0.1
1 1 0.1
0 0 0.1
0.1 0 0.1
0 0.1 0.1
0.1 0.1 0.1
0 0 0.2
0.1 0 0.2
0 0.1 0.2
0.1 0.1 0.2
0.1 0 0.1
0.2 0 0.1
0.1 0.1 0.1
0.2 0.1 0.1
0.1 0 0.2
0.2 0 0.2
0.1 0.1 0.2
0.2 0.1 0.2
0.2 0 0.1
0.3 0 0.1
0.2 0.1 0.1
0.3 0.1 0.1
0.2 0 0.2
0.3 0 0.2
0.2 0.1 0.2
0.3 0.1 0.2
0.3 0 0.1
0.4 0 0.1
0.3 0.1 0.1
0.4 0.1 0.1
0.3 0 0.2
0.4 0 0.2
0.3 0.1 0.2
0.4 0.1 0.2
0.4 0 0.1
0.5 0 0.1
0.4 0.1 0.1
0.5 0.1 0.1
0.4 0 0.2
0.5 0 0.2
0.4 0.1 0.2
0.5 0.1 0.2
0.5 0 0.1
0.6 0 0.1
0.5 0.1 0.1
0.6 0.1 0.1
0.5 0 0.2
0.6 0 0.2
0.5 0.1 0.2
0.6 0.1 0.2
0.6 0 0.1
0.7 0 0.1
0.6 0.1 0.1
0.7 0.1 0.1
0.6 0 0.2
0.7 0 0.2
0.6 0.1 0.2
0.7 0.1 0.2
0.7 0 0.1
0.8 0 0.1
0.7 0.1 0.1
0.8 0.1 0.1
0.7 0 0.2
0.8 0 0.2
0.7 0.1 0.2
0.8 0.1 0.2
0.8 0 0.1
0.9 0 0.1
0.8 0.1 0.1
0.9 0.1 0.1
0.8 0 0.2
0.9 0 0.2
0.8 0.1 0.2
0.9 0.1 0.2
0.9 0 0.1
1 0 0.1
0.9 0.1 0.1
1 0.1 0.1
0.9 0 0.2
1 0 0.2
0.9 0.1 0.2
1 0.1 0.2
0 0.1 0.1
0.1 0.1 0.1
0 0.2 0.1
0.1 0.2 0.1
0 0.1 0.2
0.1 0.1 0.2
0 0.2 0.2
0.1 0.2 0.2
0.1 0.1 0.1
0.2 0.1 0.1
0.1 0.2 0.1
0.2 0.2 0.1
0.1 0.1 0.2
0.2 0.1 0.2
0.1 0.2 0.2
0.2 0.2 0.2
0.2 0.1 0.1
0.3 0.1 0.1
0.2 0.2 0.1
0.3 0.2 0.1
0.2 0.1 0.2
0.3 0.1 0.2
0.2 0.2 0.2
0.3 0.2 0.2
0.3 0.1 0.1
0.4 0.1 0.1
0.3 0.2 0.1
0.4 0.2 0.1
0.3 0.1 0.2
0.4 0.1 0.2
0.3 0.2 0.2
0.4 0.2 0.2
0.4 0.1 0.1
0.5 0.1 0.1
0.4 0.2 0.1
0.5 0.2 0.1
0.4 0.1 0.2
0.5 0.1 0.2
0.4 0.2 0.2
0.5 0.2 0.2
0.5 0.1 0.1
0.6 0.1 0.1
[...]
POINT_DATA 8000
VECTORS u double
0 0 0
0 0 0
0 0 0
0 0 0
1.73689e-05 -3.11106e-06 -1.27998e-06
1.99884e-05 4.81937e-06 2.66267e-06
1.1718e-05 -1.55172e-06 -9.67935e-07
1.35969e-05 3.36832e-06 2.28141e-06
0 0 0
0 0 0
0 0 0
0 0 0
1.99884e-05 4.81937e-06 2.66267e-06
2.20401e-05 1.49544e-05 1.55711e-05
1.35969e-05 3.36832e-06 2.28141e-06
1.47296e-05 9.40232e-06 1.18331e-05
0 0 0
0 0 0
0 0 0
0 0 0
2.20401e-05 1.49544e-05 1.55711e-05
2.20835e-05 2.60951e-05 2.93588e-05
1.47296e-05 9.40232e-06 1.18331e-05
1.42037e-05 1.61532e-05 2.21275e-05
0 0 0
0 0 0
0 0 0
0 0 0
2.20835e-05 2.60951e-05 2.93588e-05
2.02809e-05 3.77749e-05 4.36726e-05
1.42037e-05 1.61532e-05 2.21275e-05
1.20658e-05 2.3244e-05 3.27598e-05
0 0 0
0 0 0
0 0 0
0 0 0
2.02809e-05 3.77749e-05 4.36726e-05
1.66221e-05 4.96713e-05 5.83645e-05
1.20658e-05 2.3244e-05 3.27598e-05
8.24072e-06 3.0464e-05 4.36883e-05
0 0 0
0 0 0
0 0 0
0 0 0
1.66221e-05 4.96713e-05 5.83645e-05
1.07609e-05 6.15539e-05 7.34718e-05
8.24072e-06 3.0464e-05 4.36883e-05
2.34891e-06 3.76426e-05 5.50168e-05
0 0 0
0 0 0
0 0 0
0 0 0
1.07609e-05 6.15539e-05 7.34718e-05
1.93387e-06 7.31625e-05 8.90753e-05
2.34891e-06 3.76426e-05 5.50168e-05
-6.39373e-06 4.46236e-05 6.68847e-05
0 0 0
0 0 0
0 0 0
0 0 0
1.93387e-06 7.31625e-05 8.90753e-05
-1.13038e-05 8.41852e-05 0.000105622
-6.39373e-06 4.46236e-05 6.68847e-05
-1.95177e-05 5.12301e-05 7.98256e-05
0 0 0
0 0 0
0 0 0
0 0 0
-1.13038e-05 8.41852e-05 0.000105622
-3.27083e-05 9.37402e-05 0.000123596
-1.95177e-05 5.12301e-05 7.98256e-05
-4.09546e-05 5.77754e-05 9.39709e-05
0 0 0
0 0 0
0 0 0
0 0 0
-3.27083e-05 9.37402e-05 0.000123596
-7.36909e-05 0.000104647 0.000156198
-4.09546e-05 5.77754e-05 9.39709e-05
-8.1212e-05 6.53573e-05 0.000126652
0 0 0
0 0 0
0 0 0
0 0 0
1.1718e-05 -1.55172e-06 -9.67935e-07
1.35969e-05 3.36832e-06 2.28141e-06
9.24417e-06 -1.31373e-07 -1.71911e-06
1.10207e-05 2.56871e-06 2.95312e-06
0 0 0
0 0 0
0 0 0
0 0 0
1.35969e-05 3.36832e-06 2.28141e-06
1.47296e-05 9.40232e-06 1.18331e-05
1.10207e-05 2.56871e-06 2.95312e-06
1.17621e-05 6.41865e-06 1.24409e-05
0 0 0
0 0 0
0 0 0
0 0 0
1.47296e-05 9.40232e-06 1.18331e-05
1.42037e-05 1.61532e-05 2.21275e-05
1.17621e-05 6.41865e-06 1.24409e-05
1.08603e-05 1.08027e-05 2.24324e-05
0 0 0
0 0 0
0 0 0
0 0 0
1.42037e-05 1.61532e-05 2.21275e-05
1.20658e-05 2.3244e-05 3.27598e-05
1.08603e-05 1.08027e-05 2.24324e-05
8.41615e-06 1.5467e-05 3.26938e-05
0 0 0
0 0 0
0 0 0
0 0 0
1.20658e-05 2.3244e-05 3.27598e-05
8.24072e-06 3.0464e-05 4.36883e-05
8.41615e-06 1.5467e-05 3.26938e-05
4.32227e-06 2.02377e-05 4.3208e-05
0 0 0
0 0 0
0 0 0
0 0 0
8.24072e-06 3.0464e-05 4.36883e-05
2.34891e-06 3.76426e-05 5.50168e-05
4.32227e-06 2.02377e-05 4.3208e-05
-1.84182e-06 2.49907e-05 5.40815e-05
0 0 0
0 0 0
0 0 0
0 0 0
2.34891e-06 3.76426e-05 5.50168e-05
-6.39373e-06 4.46236e-05 6.68847e-05
-1.84182e-06 2.49907e-05 5.40815e-05
-1.09258e-05 2.96326e-05 6.5456e-05
0 0 0
0 0 0
0 0 0
0 0 0
-6.39373e-06 4.46236e-05 6.68847e-05
-1.95177e-05 5.12301e-05 7.98256e-05
-1.09258e-05 2.96326e-05 6.5456e-05
-2.45638e-05 3.42002e-05 7.78928e-05
0 0 0
0 0 0
0 0 0
0 0 0
-1.95177e-05 5.12301e-05 7.98256e-05
-4.09546e-05 5.77754e-05 9.39709e-05
-2.45638e-05 3.42002e-05 7.78928e-05
-4.66379e-05 3.89606e-05 9.1847e-05
0 0 0
0 0 0
0 0 0
0 0 0
-4.09546e-05 5.77754e-05 9.39709e-05
-8.1212e-05 6.53573e-05 0.000126652
-4.66379e-05 3.89606e-05 9.1847e-05
-8.92747e-05 4.49656e-05 0.000127555
0 0 0
0 0 0
0 0 0
0 0 0
9.24417e-06 -1.31373e-07 -1.71911e-06
1.10207e-05 2.56871e-06 2.95312e-06
8.6437e-06 8.57568e-07 -1.51914e-06
1.0229e-05 1.91168e-06 3.73155e-06
0 0 0
0 0 0
0 0 0
0 0 0
1.10207e-05 2.56871e-06 2.95312e-06
1.17621e-05 6.41865e-06 1.24409e-05
1.0229e-05 1.91168e-06 3.73155e-06
1.06145e-05 4.11047e-06 1.33596e-05
0 0 0
0 0 0
0 0 0
0 0 0
1.17621e-05 6.41865e-06 1.24409e-05
1.08603e-05 1.08027e-05 2.24324e-05
1.06145e-05 4.11047e-06 1.33596e-05
9.39145e-06 6.79796e-06 2.33208e-05
0 0 0
0 0 0
0 0 0
0 0 0
1.08603e-05 1.08027e-05 2.24324e-05
8.41615e-06 1.5467e-05 3.26938e-05
9.39145e-06 6.79796e-06 2.33208e-05
6.64772e-06 9.7349e-06 3.34894e-05
0 0 0
0 0 0
0 0 0
0 0 0
8.41615e-06 1.5467e-05 3.26938e-05
4.32227e-06 2.02377e-05 4.3208e-05
6.64772e-06 9.7349e-06 3.34894e-05
2.24882e-06 1.27899e-05 4.38799e-05
0 0 0
0 0 0
0 0 0
0 0 0
4.32227e-06 2.02377e-05 4.3208e-05
-1.84182e-06 2.49907e-05 5.40815e-05
2.24882e-06 1.27899e-05 4.38799e-05
-4.26327e-06 1.5875e-05 5.46076e-05
0 0 0
0 0 0
0 0 0
0 0 0
-1.84182e-06 2.49907e-05 5.40815e-05
-1.09258e-05 2.96326e-05 6.5456e-05
-4.26327e-06 1.5875e-05 5.46076e-05
-1.3778e-05 1.89553e-05 6.58256e-05
0 0 0
0 0 0
0 0 0
0 0 0
-1.09258e-05 2.96326e-05 6.5456e-05
-2.45638e-05 3.42002e-05 7.78928e-05
-1.3778e-05 1.89553e-05 6.58256e-05
-2.79316e-05 2.20889e-05 7.81808e-05
0 0 0
0 0 0
0 0 0
0 0 0
-2.45638e-05 3.42002e-05 7.78928e-05
-4.66379e-05 3.89606e-05 9.1847e-05
-2.79316e-05 2.20889e-05 7.81808e-05
-5.07441e-05 2.55395e-05 9.2316e-05
0 0 0
0 0 0
0 0 0
0 0 0
-4.66379e-05 3.89606e-05 9.1847e-05
-8.92747e-05 4.49656e-05 0.000127555
-5.07441e-05 2.55395e-05 9.2316e-05
-9.47729e-05 2.98963e-05 0.0001303
0 0 0
0 0 0
0 0 0
0 0 0
8.6437e-06 8.57568e-07 -1.51914e-06
1.0229e-05 1.91168e-06 3.73155e-06
9.21591e-06 1.39951e-06 -5.56041e-07
1.04619e-05 1.20343e-06 4.75904e-06
0 0 0
0 0 0
0 0 0
0 0 0
1.0229e-05 1.91168e-06 3.73155e-06
1.06145e-05 4.11047e-06 1.33596e-05
1.04619e-05 1.20343e-06 4.75904e-06
1.05344e-05 2.00055e-06 1.4509e-05
0 0 0
0 0 0
0 0 0
0 0 0
1.06145e-05 4.11047e-06 1.33596e-05
9.39145e-06 6.79796e-06 2.33208e-05
1.05344e-05 2.00055e-06 1.4509e-05
9.02992e-06 3.24139e-06 2.45404e-05
0 0 0
0 0 0
0 0 0
0 0 0
9.39145e-06 6.79796e-06 2.33208e-05
6.64772e-06 9.7349e-06 3.34894e-05
9.02992e-06 3.24139e-06 2.45404e-05
6.02098e-06 4.72583e-06 3.47559e-05
0 0 0
0 0 0
0 0 0
0 0 0
6.64772e-06 9.7349e-06 3.34894e-05
2.24882e-06 1.27899e-05 4.38799e-05
6.02098e-06 4.72583e-06 3.47559e-05
1.34195e-06 6.35171e-06 4.5181e-05
0 0 0
0 0 0
0 0 0
0 0 0
2.24882e-06 1.27899e-05 4.38799e-05
-4.26327e-06 1.5875e-05 5.46076e-05
1.34195e-06 6.35171e-06 4.5181e-05
-5.493e-06 8.06018e-06 5.59365e-05
0 0 0
0 0 0
0 0 0
0 0 0
-4.26327e-06 1.5875e-05 5.46076e-05
-1.3778e-05 1.89553e-05 6.58256e-05
-5.493e-06 8.06018e-06 5.59365e-05
-1.53911e-05 9.83041e-06 6.71882e-05
0 0 0
0 0 0
0 0 0
0 0 0
-1.3778e-05 1.89553e-05 6.58256e-05
-2.79316e-05 2.20889e-05 7.81808e-05
-1.53911e-05 9.83041e-06 6.71882e-05
-3.00083e-05 1.17078e-05 7.96333e-05
0 0 0
0 0 0
0 0 0
0 0 0
-2.79316e-05 2.20889e-05 7.81808e-05
-5.07441e-05 2.55395e-05 9.2316e-05
-3.00083e-05 1.17078e-05 7.96333e-05
-5.34138e-05 1.38376e-05 9.40209e-05
0 0 0
0 0 0
0 0 0
0 0 0
-5.07441e-05 2.55395e-05 9.2316e-05
-9.47729e-05 2.98963e-05 0.0001303
-5.34138e-05 1.38376e-05 9.40209e-05
-9.87307e-05 1.66719e-05 0.000133614
0 0 0
0 0 0
0 0 0
0 0 0
9.21591e-06 1.39951e-06 -5.56041e-07
1.04619e-05 1.20343e-06 4.75904e-06
1.06597e-05 1.60541e-06 1.11809e-06
1.13897e-05 3.41472e-07 6.04907e-06
0 0 0
0 0 0
0 0 0
0 0 0
1.04619e-05 1.20343e-06 4.75904e-06
1.05344e-05 2.00055e-06 1.4509e-05
1.13897e-05 3.41472e-07 6.04907e-06
1.11709e-05 -1.4316e-07 1.58297e-05
0 0 0
0 0 0
0 0 0
0 0 0
1.05344e-05 2.00055e-06 1.4509e-05
9.02992e-06 3.24139e-06 2.45404e-05
1.11709e-05 -1.4316e-07 1.58297e-05
9.44013e-06 -2.55987e-07 2.59228e-05
0 0 0
0 0 0
0 0 0
0 0 0
9.02992e-06 3.24139e-06 2.45404e-05
6.02098e-06 4.72583e-06 3.47559e-05
9.44013e-06 -2.55987e-07 2.59228e-05
6.22091e-06 -1.29397e-07 3.6219e-05
0 0 0
0 0 0
0 0 0
0 0 0
6.02098e-06 4.72583e-06 3.47559e-05
1.34195e-06 6.35171e-06 4.5181e-05
6.22091e-06 -1.29397e-07 3.6219e-05
1.31932e-06 1.66943e-07 4.67316e-05
0 0 0
0 0 0
0 0 0
0 0 0
1.34195e-06 6.35171e-06 4.5181e-05
-5.493e-06 8.06018e-06 5.59365e-05
1.31932e-06 1.66943e-07 4.67316e-05
-5.77271e-06 5.92827e-07 5.75783e-05
0 0 0
0 0 0
0 0 0
0 0 0
-5.493e-06 8.06018e-06 5.59365e-05
-1.53911e-05 9.83041e-06 6.71882e-05
-5.77271e-06 5.92827e-07 5.75783e-05
-1.59831e-05 1.12702e-06 6.89261e-05
0 0 0
0 0 0
0 0 0
0 0 0
-1.53911e-05 9.83041e-06 6.71882e-05
-3.00083e-05 1.17078e-05 7.96333e-05
-1.59831e-05 1.12702e-06 6.89261e-05
-3.09882e-05 1.7715e-06 8.14942e-05
0 0 0
0 0 0
0 0 0
0 0 0
-3.00083e-05 1.17078e-05 7.96333e-05
-5.34138e-05 1.38376e-05 9.40209e-05
-3.09882e-05 1.7715e-06 8.14942e-05
-5.49443e-05 2.58603e-06 9.60665e-05
0 0 0
0 0 0
0 0 0
0 0 0
-5.34138e-05 1.38376e-05 9.40209e-05
-9.87307e-05 1.66719e-05 0.000133614
-5.49443e-05 2.58603e-06 9.60665e-05
-0.000101304 3.97227e-06 0.000136587
0 0 0
0 0 0
0 0 0
0 0 0
1.06597e-05 1.60541e-06 1.11809e-06
1.13897e-05 3.41472e-07 6.04907e-06
1.28691e-05 1.55668e-06 3.49974e-06
1.29009e-05 -7.57953e-07 7.64158e-06
0 0 0
0 0 0
0 0 0
0 0 0
1.13897e-05 3.41472e-07 6.04907e-06
1.11709e-05 -1.4316e-07 1.58297e-05
1.29009e-05 -7.57953e-07 7.64158e-06
1.24034e-05 -2.53595e-06 1.73502e-05
0 0 0
0 0 0
0 0 0
0 0 0
1.11709e-05 -1.4316e-07 1.58297e-05
9.44013e-06 -2.55987e-07 2.59228e-05
1.24034e-05 -2.53595e-06 1.73502e-05
1.05042e-05 -4.02673e-06 2.74804e-05
0 0 0
0 0 0
0 0 0
0 0 0
9.44013e-06 -2.55987e-07 2.59228e-05
6.22091e-06 -1.29397e-07 3.6219e-05
1.05042e-05 -4.02673e-06 2.74804e-05
7.13833e-06 -5.28627e-06 3.78726e-05
0 0 0
0 0 0
0 0 0
0 0 0
6.22091e-06 -1.29397e-07 3.6219e-05
1.31932e-06 1.66943e-07 4.67316e-05
7.13833e-06 -5.28627e-06 3.78726e-05
2.08126e-06 -6.34854e-06 4.85064e-05
0 0 0
0 0 0
0 0 0
0 0 0
1.31932e-06 1.66943e-07 4.67316e-05
-5.77271e-06 5.92827e-07 5.75783e-05
2.08126e-06 -6.34854e-06 4.85064e-05
-5.1929e-06 -7.23333e-06 5.94848e-05
0 0 0
0 0 0
0 0 0
0 0 0
-5.77271e-06 5.92827e-07 5.75783e-05
-1.59831e-05 1.12702e-06 6.89261e-05
-5.1929e-06 -7.23333e-06 5.94848e-05
-1.56331e-05 -7.95933e-06 7.09643e-05
0 0 0
0 0 0
0 0 0
0 0 0
-1.59831e-05 1.12702e-06 6.89261e-05
-3.09882e-05 1.7715e-06 8.14942e-05
-1.56331e-05 -7.95933e-06 7.09643e-05
-3.0961e-05 -8.5654e-06 8.36568e-05
0 0 0
0 0 0
0 0 0
0 0 0
-3.09882e-05 1.7715e-06 8.14942e-05
-5.49443e-05 2.58603e-06 9.60665e-05
-3.0961e-05 -8.5654e-06 8.36568e-05
-5.5399e-05 -9.07891e-06 9.83205e-05
0 0 0
0 0 0
0 0 0
0 0 0
-5.49443e-05 2.58603e-06 9.60665e-05
-0.000101304 3.97227e-06 0.000136587
-5.5399e-05 -9.07891e-06 9.83205e-05
-0.000102544 -9.16273e-06 0.000139105
0 0 0
0 0 0
0 0 0
0 0 0
1.28691e-05 1.55668e-06 3.49974e-06
1.29009e-05 -7.57953e-07 7.64158e-06
1.58784e-05 1.26644e-06 6.65567e-06
1.50392e-05 -2.24535e-06 9.57943e-06
0 0 0
0 0 0
0 0 0
0 0 0
1.29009e-05 -7.57953e-07 7.64158e-06
1.24034e-05 -2.53595e-06 1.73502e-05
1.50392e-05 -2.24535e-06 9.57943e-06
1.42858e-05 -5.46423e-06 1.91189e-05
0 0 0
0 0 0
0 0 0
0 0 0
1.24034e-05 -2.53595e-06 1.73502e-05
1.05042e-05 -4.02673e-06 2.74804e-05
1.42858e-05 -5.46423e-06 1.91189e-05
1.22763e-05 -8.47596e-06 2.92721e-05
0 0 0
0 0 0
0 0 0
0 0 0
1.05042e-05 -4.02673e-06 2.74804e-05
7.13833e-06 -5.28627e-06 3.78726e-05
1.22763e-05 -8.47596e-06 2.92721e-05
8.81742e-06 -1.12731e-05 3.97873e-05
0 0 0
0 0 0
0 0 0
0 0 0
7.13833e-06 -5.28627e-06 3.78726e-05
2.08126e-06 -6.34854e-06 4.85064e-05
8.81742e-06 -1.12731e-05 3.97873e-05
3.66065e-06 -1.38536e-05 5.05847e-05
0 0 0
0 0 0
0 0 0
0 0 0
2.08126e-06 -6.34854e-06 4.85064e-05
-5.1929e-06 -7.23333e-06 5.94848e-05
3.66065e-06 -1.38536e-05 5.05847e-05
-3.72697e-06 -1.62021e-05 6.17432e-05
0 0 0
0 0 0
0 0 0
0 0 0
-5.1929e-06 -7.23333e-06 5.94848e-05
-1.56331e-05 -7.95933e-06 7.09643e-05
-3.72697e-06 -1.62021e-05 6.17432e-05
-1.43127e-05 -1.83147e-05 7.33987e-05
0 0 0
0 0 0
0 0 0
0 0 0
-1.56331e-05 -7.95933e-06 7.09643e-05
-3.0961e-05 -8.5654e-06 8.36568e-05
-1.43127e-05 -1.83147e-05 7.33987e-05
-2.98584e-05 -2.02319e-05 8.62317e-05
0 0 0
0 0 0
0 0 0
0 0 0
-3.0961e-05 -8.5654e-06 8.36568e-05
-5.5399e-05 -9.07891e-06 9.83205e-05
-2.98584e-05 -2.02319e-05 8.62317e-05
-5.46958e-05 -2.21034e-05 0.000100911
0 0 0
0 0 0
0 0 0
0 0 0
-5.5399e-05 -9.07891e-06 9.83205e-05
-0.000102544 -9.16273e-06 0.000139105
-5.46958e-05 -2.21034e-05 0.000100911
-0.000102324 -2.37839e-05 0.000141268
0 0 0
0 0 0
0 0 0
0 0 0
1.58784e-05 1.26644e-06 6.65567e-06
1.50392e-05 -2.24535e-06 9.57943e-06
1.9897e-05 6.18121e-07 1.07267e-05
1.80577e-05 -4.4558e-06 1.19685e-05
0 0 0
0 0 0
0 0 0
0 0 0
1.50392e-05 -2.24535e-06 9.57943e-06
1.42858e-05 -5.46423e-06 1.91189e-05
1.80577e-05 -4.4558e-06 1.19685e-05
1.71122e-05 -9.40318e-06 2.13143e-05
0 0 0
0 0 0
0 0 0
0 0 0
1.42858e-05 -5.46423e-06 1.91189e-05
1.22763e-05 -8.47596e-06 2.92721e-05
1.71122e-05 -9.40318e-06 2.13143e-05
1.50315e-05 -1.42345e-05 3.15921e-05
0 0 0
0 0 0
0 0 0
0 0 0
1.22763e-05 -8.47596e-06 2.92721e-05
8.81742e-06 -1.12731e-05 3.97873e-05
1.50315e-05 -1.42345e-05 3.15921e-05
1.15065e-05 -1.89037e-05 4.236e-05
0 0 0
0 0 0
0 0 0
0 0 0
8.81742e-06 -1.12731e-05 3.97873e-05
3.66065e-06 -1.38536e-05 5.05847e-05
1.15065e-05 -1.89037e-05 4.236e-05
6.2672e-06 -2.33533e-05 5.34558e-05
0 0 0
0 0 0
0 0 0
0 0 0
3.66065e-06 -1.38536e-05 5.05847e-05
-3.72697e-06 -1.62021e-05 6.17432e-05
6.2672e-06 -2.33533e-05 5.34558e-05
-1.20602e-06 -2.75236e-05 6.49316e-05
0 0 0
0 0 0
0 0 0
0 0 0
-3.72697e-06 -1.62021e-05 6.17432e-05
-1.43127e-05 -1.83147e-05 7.33987e-05
-1.20602e-06 -2.75236e-05 6.49316e-05
-1.18648e-05 -3.13347e-05 7.69053e-05
0 0 0
0 0 0
0 0 0
0 0 0
-1.43127e-05 -1.83147e-05 7.33987e-05
-2.98584e-05 -2.02319e-05 8.62317e-05
-1.18648e-05 -3.13347e-05 7.69053e-05
-2.75184e-05 -3.47877e-05 8.99966e-05
0 0 0
0 0 0
0 0 0
0 0 0
-2.98584e-05 -2.02319e-05 8.62317e-05
-5.46958e-05 -2.21034e-05 0.000100911
-2.75184e-05 -3.47877e-05 8.99966e-05
-5.25003e-05 -3.80242e-05 0.000104733
0 0 0
0 0 0
0 0 0
0 0 0
-5.46958e-05 -2.21034e-05 0.000100911
-0.000102324 -2.37839e-05 0.000141268
-5.25003e-05 -3.80242e-05 0.000104733
-0.000100374 -4.14895e-05 0.000143955
0 0 0
0 0 0
0 0 0
0 0 0
1.9897e-05 6.18121e-07 1.07267e-05
1.80577e-05 -4.4558e-06 1.19685e-05
2.54393e-05 -1.01146e-06 1.59801e-05
2.26963e-05 -8.19298e-06 1.46818e-05
0 0 0
0 0 0
0 0 0
0 0 0
1.80577e-05 -4.4558e-06 1.19685e-05
1.71122e-05 -9.40318e-06 2.13143e-05
2.26963e-05 -8.19298e-06 1.46818e-05
2.16022e-05 -1.5439e-05 2.40985e-05
0 0 0
0 0 0
0 0 0
0 0 0
1.71122e-05 -9.40318e-06 2.13143e-05
1.50315e-05 -1.42345e-05 3.15921e-05
2.16022e-05 -1.5439e-05 2.40985e-05
1.94909e-05 -2.28332e-05 3.4804e-05
0 0 0
0 0 0
0 0 0
0 0 0
1.50315e-05 -1.42345e-05 3.15921e-05
1.15065e-05 -1.89037e-05 4.236e-05
1.94909e-05 -2.28332e-05 3.4804e-05
1.58773e-05 -3.01449e-05 4.60913e-05
0 0 0
0 0 0
0 0 0
0 0 0
1.15065e-05 -1.89037e-05 4.236e-05
6.2672e-06 -2.33533e-05 5.34558e-05
1.58773e-05 -3.01449e-05 4.60913e-05
1.05058e-05 -3.7274e-05 5.77311e-05
0 0 0
0 0 0
0 0 0
0 0 0
6.2672e-06 -2.33533e-05 5.34558e-05
-1.20602e-06 -2.75236e-05 6.49316e-05
1.05058e-05 -3.7274e-05 5.77311e-05
2.87521e-06 -4.40935e-05 6.97591e-05
0 0 0
0 0 0
0 0 0
0 0 0
-1.20602e-06 -2.75236e-05 6.49316e-05
-1.18648e-05 -3.13347e-05 7.69053e-05
2.87521e-06 -4.40935e-05 6.97591e-05
-7.92166e-06 -5.04442e-05 8.22873e-05
0 0 0
0 0 0
0 0 0
0 0 0
-1.18648e-05 -3.13347e-05 7.69053e-05
-2.75184e-05 -3.47877e-05 8.99966e-05
-7.92166e-06 -5.04442e-05 8.22873e-05
-2.36039e-05 -5.60733e-05 9.59317e-05
0 0 0
0 0 0
0 0 0
0 0 0
-2.75184e-05 -3.47877e-05 8.99966e-05
-5.25003e-05 -3.80242e-05 0.000104733
-2.36039e-05 -5.60733e-05 9.59317e-05
-4.86714e-05 -6.11701e-05 0.000110968
0 0 0
0 0 0
0 0 0
0 0 0
-5.25003e-05 -3.80242e-05 0.000104733
-0.000100374 -4.14895e-05 0.000143955
-4.86714e-05 -6.11701e-05 0.000110968
-9.54098e-05 -6.6401e-05 0.000148318
0 0 0
0 0 0
0 0 0
0 0 0
2.54393e-05 -1.01146e-06 1.59801e-05
2.26963e-05 -8.19298e-06 1.46818e-05
3.40517e-05 -5.47939e-06 2.13012e-05
3.108e-05 -1.54469e-05 2.06058e-05
0 0 0
0 0 0
0 0 0
0 0 0
2.26963e-05 -8.19298e-06 1.46818e-05
2.16022e-05 -1.5439e-05 2.40985e-05
3.108e-05 -1.54469e-05 2.06058e-05
3.03436e-05 -2.72479e-05 3.40899e-05
0 0 0
0 0 0
0 0 0
0 0 0
2.16022e-05 -1.5439e-05 2.40985e-05
1.94909e-05 -2.28332e-05 3.4804e-05
3.03436e-05 -2.72479e-05 3.40899e-05
2.83075e-05 -3.9401e-05 4.87496e-05
0 0 0
0 0 0
0 0 0
0 0 0
1.94909e-05 -2.28332e-05 3.4804e-05
1.58773e-05 -3.01449e-05 4.60913e-05
2.83075e-05 -3.9401e-05 4.87496e-05
2.46015e-05 -5.16779e-05 6.39892e-05
0 0 0
0 0 0
0 0 0
0 0 0
1.58773e-05 -3.01449e-05 4.60913e-05
1.05058e-05 -3.7274e-05 5.77311e-05
2.46015e-05 -5.16779e-05 6.39892e-05
1.89976e-05 -6.3816e-05 7.94806e-05
0 0 0
0 0 0
0 0 0
0 0 0
1.05058e-05 -3.7274e-05 5.77311e-05
2.87521e-06 -4.40935e-05 6.97591e-05
1.89976e-05 -6.3816e-05 7.94806e-05
1.09898e-05 -7.56042e-05 9.52019e-05
0 0 0
0 0 0
0 0 0
0 0 0
2.87521e-06 -4.40935e-05 6.97591e-05
-7.92166e-06 -5.04442e-05 8.22873e-05
1.09898e-05 -7.56042e-05 9.52019e-05
-3.48926e-07 -8.67534e-05 0.0001112
0 0 0
0 0 0
0 0 0
0 0 0
-7.92166e-06 -5.04442e-05 8.22873e-05
-2.36039e-05 -5.60733e-05 9.59317e-05
-3.48926e-07 -8.67534e-05 0.0001112
-1.66936e-05 -9.687e-05 0.000127998
0 0 0
0 0 0
0 0 0
0 0 0
-2.36039e-05 -5.60733e-05 9.59317e-05
-4.86714e-05 -6.11701e-05 0.000110968
-1.66936e-05 -9.687e-05 0.000127998
-4.23501e-05 -0.000104772 0.000146164
0 0 0
0 0 0
0 0 0
0 0 0
-4.86714e-05 -6.11701e-05 0.000110968
-9.54098e-05 -6.6401e-05 0.000148318
-4.23501e-05 -0.000104772 0.000146164
-9.07865e-05 -0.000113592 0.000183537
1.73689e-05 -3.11106e-06 -1.27998e-06
1.99884e-05 4.81937e-06 2.66267e-06
1.1718e-05 -1.55172e-06 -9.67935e-07
1.35969e-05 3.36832e-06 2.28141e-06
1.73389e-05 -8.66984e-06 -1.42372e-05
2.05842e-05 4.59612e-06 2.76623e-06
7.66824e-06 -4.59952e-06 -1.21307e-05
1.03639e-05 3.88883e-06 4.45537e-06
1.99884e-05 4.81937e-06 2.66267e-06
2.20401e-05 1.49544e-05 1.55711e-05
1.35969e-05 3.36832e-06 2.28141e-06
1.47296e-05 9.40232e-06 1.18331e-05
2.05842e-05 4.59612e-06 2.76623e-06
2.11832e-05 1.90054e-05 2.65644e-05
1.03639e-05 3.88883e-06 4.45537e-06
1.02003e-05 1.43531e-05 2.5779e-05
2.20401e-05 1.49544e-05 1.55711e-05
2.20835e-05 2.60951e-05 2.93588e-05
1.47296e-05 9.40232e-06 1.18331e-05
1.42037e-05 1.61532e-05 2.21275e-05
2.11832e-05 1.90054e-05 2.65644e-05
1.97141e-05 3.46e-05 5.23013e-05
1.02003e-05 1.43531e-05 2.5779e-05
8.0124e-06 2.59553e-05 4.88134e-05
2.20835e-05 2.60951e-05 2.93588e-05
2.02809e-05 3.77749e-05 4.36726e-05
1.42037e-05 1.61532e-05 2.21275e-05
1.20658e-05 2.3244e-05 3.27598e-05
1.97141e-05 3.46e-05 5.23013e-05
1.562e-05 5.08274e-05 7.8833e-05
8.0124e-06 2.59553e-05 4.88134e-05
3.43492e-06 3.81916e-05 7.252e-05
2.02809e-05 3.77749e-05 4.36726e-05
1.66221e-05 4.96713e-05 5.83645e-05
1.20658e-05 2.3244e-05 3.27598e-05
8.24072e-06 3.0464e-05 4.36883e-05
1.562e-05 5.08274e-05 7.8833e-05
8.5213e-06 6.73318e-05 0.000106235
3.43492e-06 3.81916e-05 7.252e-05
-3.94561e-06 5.06857e-05 9.69999e-05
1.66221e-05 4.96713e-05 5.83645e-05
1.07609e-05 6.15539e-05 7.34718e-05
8.24072e-06 3.0464e-05 4.36883e-05
2.34891e-06 3.76426e-05 5.50168e-05
8.5213e-06 6.73318e-05 0.000106235
-2.22891e-06 8.37763e-05 0.000134777
-3.94561e-06 5.06857e-05 9.69999e-05
-1.48153e-05 6.3151e-05 0.000122548
1.07609e-05 6.15539e-05 7.34718e-05
1.93387e-06 7.31625e-05 8.90753e-05
2.34891e-06 3.76426e-05 5.50168e-05
-6.39373e-06 4.46236e-05 6.68847e-05
-2.22891e-06 8.37763e-05 0.000134777
-1.76704e-05 9.98159e-05 0.000164902
-1.48153e-05 6.3151e-05 0.000122548
-3.02864e-05 7.53172e-05 0.000149622
1.93387e-06 7.31625e-05 8.90753e-05
-1.13038e-05 8.41852e-05 0.000105622
-6.39373e-06 4.46236e-05 6.68847e-05
-1.95177e-05 5.12301e-05 7.98256e-05
-1.76704e-05 9.98159e-05 0.000164902
-3.93004e-05 0.000115009 0.000197244
-3.02864e-05 7.53172e-05 0.000149622
-5.20888e-05 8.70211e-05 0.000178852
-1.13038e-05 8.41852e-05 0.000105622
-3.27083e-05 9.37402e-05 0.000123596
-1.95177e-05 5.12301e-05 7.98256e-05
-4.09546e-05 5.77754e-05 9.39709e-05
-3.93004e-05 0.000115009 0.000197244
-6.88813e-05 0.000129805 0.000234683
-5.20888e-05 8.70211e-05 0.000178852
-8.27758e-05 9.84592e-05 0.000213121
-3.27083e-05 9.37402e-05 0.000123596
-7.36909e-05 0.000104647 0.000156198
-4.09546e-05 5.77754e-05 9.39709e-05
-8.1212e-05 6.53573e-05 0.000126652
-6.88813e-05 0.000129805 0.000234683
-0.000100901 0.000144574 0.000273656
-8.27758e-05 9.84592e-05 0.000213121
-0.000118502 0.000111351 0.000252265
1.1718e-05 -1.55172e-06 -9.67935e-07